<?xml version="1.0" encoding="UTF-8"?>

<!-- generated on 2018/5/9 12:24:49 by SUMO gui Version 0.32.0
<?xml version="1.0" encoding="UTF-8"?>

<configuration xmlns:xsi="http://www.w3.org/2001/XMLSchema-instance" xsi:noNamespaceSchemaLocation="http://sumo.dlr.de/xsd/sumoConfiguration.xsd">

    <input>
        <net-file value="LAedited.net.xml"/>
        <route-files value="LA2.rou.xml"/>
    </input>

    <output>
        <tripinfo-output value="LATripInfo.xml"/>
    </output>

    <time>
        <begin value="0"/>
        <end value="500"/>
        <step-length value="0.1"/>
    </time>

    <report>
        <verbose value="true"/>
        <no-step-log value="true"/>
    </report>

    <traci_server>
        <remote-port value="4608"/>
    </traci_server>

    <random_number>
        <seed value="999"/>
    </random_number>

    <gui_only>
        <gui-settings-file value="viewsettings.xml"/>
        <tracker-interval value="0.1"/>
    </gui_only>

</configuration>
-->

<tripinfos xmlns:xsi="http://www.w3.org/2001/XMLSchema-instance" xsi:noNamespaceSchemaLocation="http://sumo.dlr.de/xsd/tripinfo_file.xsd">
    <tripinfo id="5" depart="5.00" departLane="-399296456#0_0" departPos="5.10" departSpeed="0.00" departDelay="0.00" arrival="56.60" arrivalLane="161687300#4_2" arrivalPos="0.40" arrivalSpeed="7.41" duration="51.60" routeLength="505.06" waitSteps="98" timeLoss="33.41" rerouteNo="0" devices="tripinfo_5" vType="DEFAULT_VEHTYPE" speedFactor="1.00" vaporized=""/>
    <tripinfo id="26" depart="26.00" departLane="-399307902_0" departPos="5.10" departSpeed="0.00" departDelay="0.00" arrival="97.10" arrivalLane="-399296446#1_0" arrivalPos="20.78" arrivalSpeed="22.14" duration="71.10" routeLength="373.79" waitSteps="250" timeLoss="48.67" rerouteNo="0" devices="tripinfo_26" vType="DEFAULT_VEHTYPE" speedFactor="1.00" vaporized=""/>
    <tripinfo id="73" depart="73.00" departLane="161890061#0_0" departPos="5.10" departSpeed="0.00" departDelay="0.00" arrival="102.10" arrivalLane="381190351#3_0" arrivalPos="46.41" arrivalSpeed="15.23" duration="29.10" routeLength="353.43" waitSteps="0" timeLoss="12.76" rerouteNo="0" devices="tripinfo_73" vType="DEFAULT_VEHTYPE" speedFactor="1.00" vaporized=""/>
    <tripinfo id="25" depart="25.00" departLane="45536814#4_0" departPos="2.09" departSpeed="0.00" departDelay="0.00" arrival="108.40" arrivalLane="-45536227#0_1" arrivalPos="0.50" arrivalSpeed="5.08" duration="83.40" routeLength="403.54" waitSteps="415" timeLoss="67.16" rerouteNo="0" devices="tripinfo_25" vType="DEFAULT_VEHTYPE" speedFactor="1.00" vaporized=""/>
    <tripinfo id="36" depart="36.00" departLane="161687300#4_0" departPos="0.40" departSpeed="0.00" departDelay="0.00" arrival="111.20" arrivalLane="523623581#0_2" arrivalPos="1.23" arrivalSpeed="9.96" duration="75.20" routeLength="705.66" waitSteps="193" timeLoss="49.79" rerouteNo="0" devices="tripinfo_36" vType="DEFAULT_VEHTYPE" speedFactor="1.00" vaporized=""/>
    <tripinfo id="10" depart="10.00" departLane="25448307#0_0" departPos="5.10" departSpeed="0.00" departDelay="0.00" arrival="116.50" arrivalLane="381204958#1_0" arrivalPos="22.81" arrivalSpeed="25.21" duration="106.50" routeLength="1207.37" waitSteps="55" timeLoss="60.04" rerouteNo="0" devices="tripinfo_10" vType="DEFAULT_VEHTYPE" speedFactor="1.00" vaporized=""/>
    <tripinfo id="87" depart="87.00" departLane="-399247043#1_0" departPos="0.81" departSpeed="0.00" departDelay="0.00" arrival="117.70" arrivalLane="45619517#3_0" arrivalPos="11.76" arrivalSpeed="21.10" duration="30.70" routeLength="380.46" waitSteps="0" timeLoss="13.54" rerouteNo="0" devices="tripinfo_87" vType="DEFAULT_VEHTYPE" speedFactor="1.00" vaporized=""/>
    <tripinfo id="23" depart="23.00" departLane="-381196468#0_0" departPos="5.10" departSpeed="0.00" departDelay="0.00" arrival="121.40" arrivalLane="381246291#2_1" arrivalPos="0.20" arrivalSpeed="4.73" duration="98.40" routeLength="947.63" waitSteps="72" timeLoss="50.94" rerouteNo="0" devices="tripinfo_23" vType="DEFAULT_VEHTYPE" speedFactor="1.00" vaporized=""/>
    <tripinfo id="43" depart="43.00" departLane="524575358_0" departPos="5.10" departSpeed="0.00" departDelay="0.00" arrival="130.20" arrivalLane="-399296453_1" arrivalPos="3.10" arrivalSpeed="7.37" duration="87.20" routeLength="1276.30" waitSteps="0" timeLoss="41.25" rerouteNo="0" devices="tripinfo_43" vType="DEFAULT_VEHTYPE" speedFactor="1.00" vaporized=""/>
    <tripinfo id="117" depart="117.00" departLane="161716060#3_0" departPos="0.69" departSpeed="0.00" departDelay="0.00" arrival="139.70" arrivalLane="-161890055#4_0" arrivalPos="21.62" arrivalSpeed="11.76" duration="22.70" routeLength="229.87" waitSteps="0" timeLoss="9.36" rerouteNo="0" devices="tripinfo_117" vType="DEFAULT_VEHTYPE" speedFactor="1.00" vaporized=""/>
    <tripinfo id="20" depart="20.00" departLane="161688462#5_0" departPos="0.20" departSpeed="0.00" departDelay="0.00" arrival="142.60" arrivalLane="399294703_1" arrivalPos="27.48" arrivalSpeed="27.74" duration="122.60" routeLength="1389.51" waitSteps="232" timeLoss="72.54" rerouteNo="0" devices="tripinfo_20" vType="DEFAULT_VEHTYPE" speedFactor="1.00" vaporized=""/>
    <tripinfo id="16" depart="16.00" departLane="13405586#1_0" departPos="5.10" departSpeed="0.00" departDelay="0.00" arrival="153.00" arrivalLane="-405162747#1_0" arrivalPos="43.81" arrivalSpeed="5.35" duration="137.00" routeLength="1332.58" waitSteps="269" timeLoss="88.64" rerouteNo="0" devices="tripinfo_16" vType="DEFAULT_VEHTYPE" speedFactor="1.00" vaporized=""/>
    <tripinfo id="38" depart="38.00" departLane="-100930395#0_0" departPos="5.10" departSpeed="0.00" departDelay="0.00" arrival="155.10" arrivalLane="161689804#8_0" arrivalPos="159.50" arrivalSpeed="13.85" duration="117.10" routeLength="1051.11" waitSteps="383" timeLoss="73.39" rerouteNo="0" devices="tripinfo_38" vType="DEFAULT_VEHTYPE" speedFactor="1.00" vaporized=""/>
    <tripinfo id="68" depart="68.00" departLane="323126706#4_0" departPos="0.20" departSpeed="0.00" departDelay="0.00" arrival="158.90" arrivalLane="437912349#4_0" arrivalPos="55.23" arrivalSpeed="15.09" duration="90.90" routeLength="906.26" waitSteps="141" timeLoss="52.17" rerouteNo="0" devices="tripinfo_68" vType="DEFAULT_VEHTYPE" speedFactor="1.00" vaporized=""/>
    <tripinfo id="11" depart="12.60" departLane="-381204958#1_0" departPos="5.10" departSpeed="0.00" departDelay="1.60" arrival="160.70" arrivalLane="-405162744#0_1" arrivalPos="37.93" arrivalSpeed="13.56" duration="148.10" routeLength="703.38" waitSteps="636" timeLoss="122.76" rerouteNo="0" devices="tripinfo_11" vType="DEFAULT_VEHTYPE" speedFactor="1.00" vaporized=""/>
    <tripinfo id="75" depart="75.00" departLane="13350354#1_0" departPos="5.10" departSpeed="0.00" departDelay="0.00" arrival="162.60" arrivalLane="486582813_1" arrivalPos="6.82" arrivalSpeed="6.20" duration="87.60" routeLength="513.41" waitSteps="217" timeLoss="68.71" rerouteNo="0" devices="tripinfo_75" vType="DEFAULT_VEHTYPE" speedFactor="1.00" vaporized=""/>
    <tripinfo id="31" depart="31.00" departLane="-405164502#1_0" departPos="1.35" departSpeed="0.00" departDelay="0.00" arrival="163.80" arrivalLane="398815739#0_2" arrivalPos="17.23" arrivalSpeed="10.65" duration="132.80" routeLength="1154.40" waitSteps="216" timeLoss="91.22" rerouteNo="0" devices="tripinfo_31" vType="DEFAULT_VEHTYPE" speedFactor="1.00" vaporized=""/>
    <tripinfo id="60" depart="60.00" departLane="186070738#0_0" departPos="3.04" departSpeed="0.00" departDelay="0.00" arrival="167.20" arrivalLane="206376286#3_1" arrivalPos="0.58" arrivalSpeed="18.04" duration="107.20" routeLength="567.34" waitSteps="391" timeLoss="86.73" rerouteNo="0" devices="tripinfo_60" vType="DEFAULT_VEHTYPE" speedFactor="1.00" vaporized=""/>
    <tripinfo id="122" depart="122.00" departLane="-161688172#1_0" departPos="5.10" departSpeed="0.00" departDelay="0.00" arrival="168.20" arrivalLane="399241934#3_0" arrivalPos="47.33" arrivalSpeed="27.68" duration="46.20" routeLength="457.87" waitSteps="104" timeLoss="29.30" rerouteNo="0" devices="tripinfo_122" vType="DEFAULT_VEHTYPE" speedFactor="1.00" vaporized=""/>
    <tripinfo id="58" depart="58.00" departLane="186076381#2_0" departPos="1.41" departSpeed="0.00" departDelay="0.00" arrival="173.80" arrivalLane="404995538#1_1" arrivalPos="0.20" arrivalSpeed="6.53" duration="115.80" routeLength="389.06" waitSteps="698" timeLoss="101.79" rerouteNo="0" devices="tripinfo_58" vType="DEFAULT_VEHTYPE" speedFactor="1.00" vaporized=""/>
    <tripinfo id="89" depart="90.00" departLane="-405164499#0_0" departPos="0.20" departSpeed="0.00" departDelay="1.00" arrival="173.90" arrivalLane="237022767#0_2" arrivalPos="0.87" arrivalSpeed="15.64" duration="83.90" routeLength="508.15" waitSteps="267" timeLoss="62.10" rerouteNo="0" devices="tripinfo_89" vType="DEFAULT_VEHTYPE" speedFactor="1.00" vaporized=""/>
    <tripinfo id="114" depart="116.20" departLane="161688173#1_0" departPos="5.10" departSpeed="0.00" departDelay="2.20" arrival="175.90" arrivalLane="437799959#4_1" arrivalPos="2.23" arrivalSpeed="7.52" duration="59.70" routeLength="306.25" waitSteps="151" timeLoss="48.65" rerouteNo="0" devices="tripinfo_114" vType="DEFAULT_VEHTYPE" speedFactor="1.00" vaporized=""/>
    <tripinfo id="118" depart="118.00" departLane="-578742472_0" departPos="5.10" departSpeed="0.00" departDelay="0.00" arrival="178.80" arrivalLane="399294707#7_2" arrivalPos="0.20" arrivalSpeed="27.19" duration="60.80" routeLength="640.06" waitSteps="66" timeLoss="34.48" rerouteNo="0" devices="tripinfo_118" vType="DEFAULT_VEHTYPE" speedFactor="1.00" vaporized=""/>
    <tripinfo id="129" depart="131.30" departLane="-399238814#0_0" departPos="3.21" departSpeed="0.00" departDelay="2.30" arrival="182.40" arrivalLane="521802279#1_1" arrivalPos="3.24" arrivalSpeed="7.55" duration="51.10" routeLength="414.41" waitSteps="124" timeLoss="35.66" rerouteNo="0" devices="tripinfo_129" vType="DEFAULT_VEHTYPE" speedFactor="1.00" vaporized=""/>
    <tripinfo id="56" depart="56.00" departLane="-399294726_0" departPos="5.10" departSpeed="0.00" departDelay="0.00" arrival="185.00" arrivalLane="-399247036_0" arrivalPos="1.29" arrivalSpeed="6.93" duration="129.00" routeLength="566.98" waitSteps="460" timeLoss="108.57" rerouteNo="0" devices="tripinfo_56" vType="DEFAULT_VEHTYPE" speedFactor="1.00" vaporized=""/>
    <tripinfo id="98" depart="98.00" departLane="-326489607#2_0" departPos="5.10" departSpeed="0.00" departDelay="0.00" arrival="185.70" arrivalLane="185948949#2_0" arrivalPos="28.99" arrivalSpeed="25.55" duration="87.70" routeLength="415.68" waitSteps="448" timeLoss="72.71" rerouteNo="0" devices="tripinfo_98" vType="DEFAULT_VEHTYPE" speedFactor="1.00" vaporized=""/>
    <tripinfo id="22" depart="22.00" departLane="-381189081#3_0" departPos="5.10" departSpeed="0.00" departDelay="0.00" arrival="186.60" arrivalLane="-25448307#1_0" arrivalPos="7.66" arrivalSpeed="11.49" duration="164.60" routeLength="1071.74" waitSteps="595" timeLoss="125.47" rerouteNo="0" devices="tripinfo_22" vType="DEFAULT_VEHTYPE" speedFactor="1.00" vaporized=""/>
    <tripinfo id="154" depart="154.00" departLane="405163390#0_0" departPos="5.10" departSpeed="0.00" departDelay="0.00" arrival="188.00" arrivalLane="-382238485#1_0" arrivalPos="54.28" arrivalSpeed="27.66" duration="34.00" routeLength="629.48" waitSteps="0" timeLoss="11.33" rerouteNo="0" devices="tripinfo_154" vType="DEFAULT_VEHTYPE" speedFactor="1.00" vaporized=""/>
    <tripinfo id="84" depart="84.00" departLane="382238491#3_0" departPos="0.15" departSpeed="0.00" departDelay="0.00" arrival="190.70" arrivalLane="404995539_0" arrivalPos="15.64" arrivalSpeed="17.77" duration="106.70" routeLength="592.89" waitSteps="399" timeLoss="71.16" rerouteNo="0" devices="tripinfo_84" vType="DEFAULT_VEHTYPE" speedFactor="1.00" vaporized=""/>
    <tripinfo id="30" depart="30.00" departLane="543624991#0_0" departPos="2.10" departSpeed="0.00" departDelay="0.00" arrival="192.70" arrivalLane="-326489606#5_1" arrivalPos="0.43" arrivalSpeed="8.00" duration="162.70" routeLength="735.27" waitSteps="768" timeLoss="136.21" rerouteNo="0" devices="tripinfo_30" vType="DEFAULT_VEHTYPE" speedFactor="1.00" vaporized=""/>
    <tripinfo id="166" depart="166.00" departLane="-399296438_0" departPos="5.10" departSpeed="0.00" departDelay="0.00" arrival="195.50" arrivalLane="206376283#3_1" arrivalPos="78.36" arrivalSpeed="27.68" duration="29.50" routeLength="422.16" waitSteps="0" timeLoss="14.31" rerouteNo="0" devices="tripinfo_166" vType="DEFAULT_VEHTYPE" speedFactor="1.00" vaporized=""/>
    <tripinfo id="8" depart="8.00" departLane="186070704#8_0" departPos="5.10" departSpeed="0.00" departDelay="0.00" arrival="199.70" arrivalLane="399296457#0_2" arrivalPos="14.15" arrivalSpeed="9.88" duration="191.70" routeLength="728.23" waitSteps="1206" timeLoss="165.49" rerouteNo="0" devices="tripinfo_8" vType="DEFAULT_VEHTYPE" speedFactor="1.00" vaporized=""/>
    <tripinfo id="159" depart="159.00" departLane="399247043#1_0" departPos="0.81" departSpeed="0.00" departDelay="0.00" arrival="200.10" arrivalLane="100930395#1_1" arrivalPos="0.20" arrivalSpeed="7.46" duration="41.10" routeLength="225.33" waitSteps="114" timeLoss="31.02" rerouteNo="0" devices="tripinfo_159" vType="DEFAULT_VEHTYPE" speedFactor="1.00" vaporized=""/>
    <tripinfo id="147" depart="147.00" departLane="161688173#1_0" departPos="5.10" departSpeed="0.00" departDelay="0.00" arrival="202.10" arrivalLane="-399241937#1_0" arrivalPos="0.10" arrivalSpeed="16.54" duration="55.10" routeLength="172.44" waitSteps="256" timeLoss="48.85" rerouteNo="0" devices="tripinfo_147" vType="DEFAULT_VEHTYPE" speedFactor="1.00" vaporized=""/>
    <tripinfo id="111" depart="116.50" departLane="-186076386#1_0" departPos="5.10" departSpeed="0.00" departDelay="5.50" arrival="202.80" arrivalLane="-381204958#0_0" arrivalPos="0.20" arrivalSpeed="27.16" duration="86.30" routeLength="290.21" waitSteps="574" timeLoss="75.85" rerouteNo="0" devices="tripinfo_111" vType="DEFAULT_VEHTYPE" speedFactor="1.00" vaporized=""/>
    <tripinfo id="97" depart="97.00" departLane="-399296457#1_0" departPos="5.10" departSpeed="0.00" departDelay="0.00" arrival="203.40" arrivalLane="186076386#0_1" arrivalPos="0.20" arrivalSpeed="8.38" duration="106.40" routeLength="578.54" waitSteps="505" timeLoss="85.58" rerouteNo="0" devices="tripinfo_97" vType="DEFAULT_VEHTYPE" speedFactor="1.00" vaporized=""/>
    <tripinfo id="17" depart="17.00" departLane="-13458280#1_0" departPos="5.10" departSpeed="0.00" departDelay="0.00" arrival="206.10" arrivalLane="-45536814#7_0" arrivalPos="0.89" arrivalSpeed="7.26" duration="189.10" routeLength="1492.60" waitSteps="509" timeLoss="130.84" rerouteNo="0" devices="tripinfo_17" vType="DEFAULT_VEHTYPE" speedFactor="1.00" vaporized=""/>
    <tripinfo id="67" depart="99.70" departLane="186076381#5_0" departPos="1.29" departSpeed="0.00" departDelay="32.70" arrival="207.90" arrivalLane="399243269#0_0" arrivalPos="6.05" arrivalSpeed="8.17" duration="108.20" routeLength="606.26" waitSteps="424" timeLoss="86.36" rerouteNo="0" devices="tripinfo_67" vType="DEFAULT_VEHTYPE" speedFactor="1.00" vaporized=""/>
    <tripinfo id="78" depart="78.00" departLane="-399238816#2_0" departPos="5.10" departSpeed="0.00" departDelay="0.00" arrival="209.00" arrivalLane="-382492648#1_0" arrivalPos="4.14" arrivalSpeed="6.34" duration="131.00" routeLength="875.69" waitSteps="395" timeLoss="99.41" rerouteNo="0" devices="tripinfo_78" vType="DEFAULT_VEHTYPE" speedFactor="1.00" vaporized=""/>
    <tripinfo id="127" depart="127.00" departLane="-13371738#1_0" departPos="5.10" departSpeed="0.00" departDelay="0.00" arrival="210.60" arrivalLane="-100930395#0_1" arrivalPos="91.93" arrivalSpeed="21.57" duration="83.60" routeLength="534.62" waitSteps="321" timeLoss="55.98" rerouteNo="0" devices="tripinfo_127" vType="DEFAULT_VEHTYPE" speedFactor="1.00" vaporized=""/>
    <tripinfo id="112" depart="113.30" departLane="398815739#1_0" departPos="0.79" departSpeed="0.00" departDelay="1.30" arrival="212.30" arrivalLane="-161716057#0_0" arrivalPos="185.48" arrivalSpeed="13.80" duration="99.00" routeLength="656.49" waitSteps="273" timeLoss="68.50" rerouteNo="0" devices="tripinfo_112" vType="DEFAULT_VEHTYPE" speedFactor="1.00" vaporized=""/>
    <tripinfo id="139" depart="139.00" departLane="161688767#0_0" departPos="5.10" departSpeed="0.00" departDelay="0.00" arrival="215.50" arrivalLane="206354180#3_3" arrivalPos="3.10" arrivalSpeed="9.37" duration="76.50" routeLength="1294.07" waitSteps="0" timeLoss="29.89" rerouteNo="0" devices="tripinfo_139" vType="DEFAULT_VEHTYPE" speedFactor="1.00" vaporized=""/>
    <tripinfo id="161" depart="161.00" departLane="399247033#1_0" departPos="1.20" departSpeed="0.00" departDelay="0.00" arrival="216.60" arrivalLane="-437799959#5_1" arrivalPos="53.21" arrivalSpeed="15.58" duration="55.60" routeLength="125.69" waitSteps="399" timeLoss="51.07" rerouteNo="0" devices="tripinfo_161" vType="DEFAULT_VEHTYPE" speedFactor="1.00" vaporized=""/>
    <tripinfo id="92" depart="92.00" departLane="-381243038#10_0" departPos="5.10" departSpeed="0.00" departDelay="0.00" arrival="219.00" arrivalLane="45536814#9_0" arrivalPos="48.90" arrivalSpeed="22.19" duration="127.00" routeLength="1137.75" waitSteps="277" timeLoss="78.14" rerouteNo="0" devices="tripinfo_92" vType="DEFAULT_VEHTYPE" speedFactor="1.00" vaporized=""/>
    <tripinfo id="57" depart="57.00" departLane="24849409_0" departPos="5.10" departSpeed="0.00" departDelay="0.00" arrival="222.00" arrivalLane="-399306055_0" arrivalPos="48.90" arrivalSpeed="14.97" duration="165.00" routeLength="1424.15" waitSteps="481" timeLoss="99.65" rerouteNo="0" devices="tripinfo_57" vType="DEFAULT_VEHTYPE" speedFactor="1.00" vaporized=""/>
    <tripinfo id="13" depart="13.00" departLane="206372069#2_0" departPos="5.10" departSpeed="0.00" departDelay="0.00" arrival="222.10" arrivalLane="-399270702#1_1" arrivalPos="3.82" arrivalSpeed="7.70" duration="209.10" routeLength="880.72" waitSteps="1155" timeLoss="177.38" rerouteNo="0" devices="tripinfo_13" vType="DEFAULT_VEHTYPE" speedFactor="1.00" vaporized=""/>
    <tripinfo id="82" depart="82.00" departLane="382490911_0" departPos="5.10" departSpeed="0.00" departDelay="0.00" arrival="223.10" arrivalLane="-398735947#1_1" arrivalPos="0.48" arrivalSpeed="11.13" duration="141.10" routeLength="863.12" waitSteps="461" timeLoss="100.87" rerouteNo="0" devices="tripinfo_82" vType="DEFAULT_VEHTYPE" speedFactor="1.00" vaporized=""/>
    <tripinfo id="29" depart="29.00" departLane="-323126706#4_0" departPos="0.20" departSpeed="0.00" departDelay="0.00" arrival="223.10" arrivalLane="-13315907_0" arrivalPos="213.51" arrivalSpeed="13.77" duration="194.10" routeLength="1263.09" waitSteps="715" timeLoss="140.68" rerouteNo="0" devices="tripinfo_29" vType="DEFAULT_VEHTYPE" speedFactor="1.00" vaporized=""/>
    <tripinfo id="93" depart="93.00" departLane="382229043#0_0" departPos="0.20" departSpeed="0.00" departDelay="0.00" arrival="229.70" arrivalLane="381243043#4_0" arrivalPos="2.48" arrivalSpeed="21.67" duration="136.70" routeLength="990.63" waitSteps="537" timeLoss="100.88" rerouteNo="0" devices="tripinfo_93" vType="DEFAULT_VEHTYPE" speedFactor="1.00" vaporized=""/>
    <tripinfo id="95" depart="95.00" departLane="399247030#1_0" departPos="0.20" departSpeed="0.00" departDelay="0.00" arrival="230.20" arrivalLane="186076381#5_3" arrivalPos="1.29" arrivalSpeed="27.72" duration="135.20" routeLength="1071.78" waitSteps="280" timeLoss="96.55" rerouteNo="0" devices="tripinfo_95" vType="DEFAULT_VEHTYPE" speedFactor="1.00" vaporized=""/>
    <tripinfo id="91" depart="91.00" departLane="-437799959#6_0" departPos="5.10" departSpeed="0.00" departDelay="0.00" arrival="233.80" arrivalLane="-399241924#5_1" arrivalPos="222.62" arrivalSpeed="27.67" duration="142.80" routeLength="1330.57" waitSteps="392" timeLoss="94.85" rerouteNo="0" devices="tripinfo_91" vType="DEFAULT_VEHTYPE" speedFactor="1.00" vaporized=""/>
    <tripinfo id="6" depart="6.00" departLane="-399243265#1_0" departPos="5.10" departSpeed="0.00" departDelay="0.00" arrival="236.20" arrivalLane="399270698#0_3" arrivalPos="0.99" arrivalSpeed="7.55" duration="230.20" routeLength="1327.17" waitSteps="905" timeLoss="180.28" rerouteNo="0" devices="tripinfo_6" vType="DEFAULT_VEHTYPE" speedFactor="1.00" vaporized=""/>
    <tripinfo id="63" depart="105.30" departLane="47805886#5_0" departPos="0.20" departSpeed="0.00" departDelay="42.30" arrival="238.10" arrivalLane="186070725#7_2" arrivalPos="15.83" arrivalSpeed="27.68" duration="132.80" routeLength="994.83" waitSteps="405" timeLoss="96.91" rerouteNo="0" devices="tripinfo_63" vType="DEFAULT_VEHTYPE" speedFactor="1.00" vaporized=""/>
    <tripinfo id="186" depart="186.00" departLane="48331373#3_0" departPos="5.10" departSpeed="0.00" departDelay="0.00" arrival="239.60" arrivalLane="399238812_0" arrivalPos="21.85" arrivalSpeed="27.78" duration="53.60" routeLength="336.04" waitSteps="225" timeLoss="41.44" rerouteNo="0" devices="tripinfo_186" vType="DEFAULT_VEHTYPE" speedFactor="1.00" vaporized=""/>
    <tripinfo id="50" depart="50.00" departLane="-121934301#9_0" departPos="5.10" departSpeed="0.00" departDelay="0.00" arrival="241.00" arrivalLane="235177035#1_1" arrivalPos="16.43" arrivalSpeed="15.05" duration="191.00" routeLength="911.06" waitSteps="1013" timeLoss="158.20" rerouteNo="0" devices="tripinfo_50" vType="DEFAULT_VEHTYPE" speedFactor="1.00" vaporized=""/>
    <tripinfo id="137" depart="137.00" departLane="381189081#4_0" departPos="5.10" departSpeed="0.00" departDelay="0.00" arrival="245.20" arrivalLane="234667498#0_0" arrivalPos="0.20" arrivalSpeed="6.76" duration="108.20" routeLength="857.65" waitSteps="403" timeLoss="77.32" rerouteNo="0" devices="tripinfo_137" vType="DEFAULT_VEHTYPE" speedFactor="1.00" vaporized=""/>
    <tripinfo id="62" depart="62.00" departLane="-580285683#1_0" departPos="5.10" departSpeed="0.00" departDelay="0.00" arrival="246.70" arrivalLane="-399296456#0_1" arrivalPos="47.33" arrivalSpeed="27.73" duration="184.70" routeLength="1036.92" waitSteps="784" timeLoss="147.32" rerouteNo="0" devices="tripinfo_62" vType="DEFAULT_VEHTYPE" speedFactor="1.00" vaporized=""/>
    <tripinfo id="228" depart="228.00" departLane="161716060#2_0" departPos="5.10" departSpeed="0.00" departDelay="0.00" arrival="252.00" arrivalLane="-161890055#0_0" arrivalPos="73.92" arrivalSpeed="13.81" duration="24.00" routeLength="246.22" waitSteps="0" timeLoss="9.39" rerouteNo="0" devices="tripinfo_228" vType="DEFAULT_VEHTYPE" speedFactor="1.00" vaporized=""/>
    <tripinfo id="104" depart="104.00" departLane="398815739#0_0" departPos="5.10" departSpeed="0.00" departDelay="0.00" arrival="252.10" arrivalLane="161688462#1_2" arrivalPos="54.94" arrivalSpeed="27.75" duration="148.10" routeLength="825.40" waitSteps="500" timeLoss="118.32" rerouteNo="0" devices="tripinfo_104" vType="DEFAULT_VEHTYPE" speedFactor="1.00" vaporized=""/>
    <tripinfo id="4" depart="4.00" departLane="456584005#1_0" departPos="5.10" departSpeed="0.00" departDelay="0.00" arrival="254.80" arrivalLane="-381243038#10_1" arrivalPos="80.02" arrivalSpeed="5.47" duration="250.80" routeLength="1048.29" waitSteps="1379" timeLoss="212.44" rerouteNo="0" devices="tripinfo_4" vType="DEFAULT_VEHTYPE" speedFactor="1.00" vaporized=""/>
    <tripinfo id="199" depart="199.00" departLane="-161716025#0_0" departPos="0.11" departSpeed="0.00" departDelay="0.00" arrival="257.80" arrivalLane="-486582813_1" arrivalPos="6.82" arrivalSpeed="8.39" duration="58.80" routeLength="157.20" waitSteps="340" timeLoss="53.12" rerouteNo="0" devices="tripinfo_199" vType="DEFAULT_VEHTYPE" speedFactor="1.00" vaporized=""/>
    <tripinfo id="115" depart="115.00" departLane="-48331373#2_0" departPos="5.10" departSpeed="0.00" departDelay="0.00" arrival="260.50" arrivalLane="-237022761#8_0" arrivalPos="84.30" arrivalSpeed="19.05" duration="145.50" routeLength="894.20" waitSteps="838" timeLoss="113.30" rerouteNo="0" devices="tripinfo_115" vType="DEFAULT_VEHTYPE" speedFactor="1.00" vaporized=""/>
    <tripinfo id="40" depart="40.00" departLane="381243038#2_0" departPos="0.29" departSpeed="0.00" departDelay="0.00" arrival="263.20" arrivalLane="437912349#5_1" arrivalPos="118.72" arrivalSpeed="9.63" duration="223.20" routeLength="1786.68" waitSteps="721" timeLoss="152.60" rerouteNo="0" devices="tripinfo_40" vType="DEFAULT_VEHTYPE" speedFactor="1.00" vaporized=""/>
    <tripinfo id="47" depart="47.00" departLane="-399294716#1_0" departPos="0.20" departSpeed="0.00" departDelay="0.00" arrival="263.60" arrivalLane="45536814#9_0" arrivalPos="48.90" arrivalSpeed="22.18" duration="216.60" routeLength="877.98" waitSteps="1064" timeLoss="183.45" rerouteNo="0" devices="tripinfo_47" vType="DEFAULT_VEHTYPE" speedFactor="1.00" vaporized=""/>
    <tripinfo id="251" depart="252.00" departLane="161890055#0_0" departPos="5.10" departSpeed="0.00" departDelay="1.00" arrival="267.00" arrivalLane="-161890055#2_0" arrivalPos="2.07" arrivalSpeed="7.30" duration="15.00" routeLength="97.89" waitSteps="0" timeLoss="7.91" rerouteNo="0" devices="tripinfo_251" vType="DEFAULT_VEHTYPE" speedFactor="1.00" vaporized=""/>
    <tripinfo id="145" depart="145.00" departLane="399296454_0" departPos="2.14" departSpeed="0.00" departDelay="0.00" arrival="267.60" arrivalLane="-326489606#4_1" arrivalPos="57.24" arrivalSpeed="17.64" duration="122.60" routeLength="523.12" waitSteps="593" timeLoss="103.72" rerouteNo="0" devices="tripinfo_145" vType="DEFAULT_VEHTYPE" speedFactor="1.00" vaporized=""/>
    <tripinfo id="125" depart="125.00" departLane="45536227#5_0" departPos="5.10" departSpeed="0.00" departDelay="0.00" arrival="271.10" arrivalLane="399241929#1_0" arrivalPos="17.57" arrivalSpeed="15.24" duration="146.10" routeLength="739.92" waitSteps="671" timeLoss="119.44" rerouteNo="0" devices="tripinfo_125" vType="DEFAULT_VEHTYPE" speedFactor="1.00" vaporized=""/>
    <tripinfo id="103" depart="103.00" departLane="-45536227#0_0" departPos="0.50" departSpeed="0.00" departDelay="0.00" arrival="272.80" arrivalLane="524575359#1_0" arrivalPos="0.20" arrivalSpeed="27.68" duration="169.80" routeLength="815.56" waitSteps="878" timeLoss="140.43" rerouteNo="0" devices="tripinfo_103" vType="DEFAULT_VEHTYPE" speedFactor="1.00" vaporized=""/>
    <tripinfo id="168" depart="168.00" departLane="121934301#1_0" departPos="5.10" departSpeed="0.00" departDelay="0.00" arrival="278.50" arrivalLane="404989116#0_1" arrivalPos="5.98" arrivalSpeed="16.57" duration="110.50" routeLength="1219.42" waitSteps="282" timeLoss="66.60" rerouteNo="0" devices="tripinfo_168" vType="DEFAULT_VEHTYPE" speedFactor="1.00" vaporized=""/>
    <tripinfo id="216" depart="216.00" departLane="-405162741#0_0" departPos="5.10" departSpeed="0.00" departDelay="0.00" arrival="279.00" arrivalLane="206372071#3_0" arrivalPos="0.10" arrivalSpeed="6.88" duration="63.00" routeLength="671.18" waitSteps="44" timeLoss="38.82" rerouteNo="0" devices="tripinfo_216" vType="DEFAULT_VEHTYPE" speedFactor="1.00" vaporized=""/>
    <tripinfo id="101" depart="101.00" departLane="-521802279#13_0" departPos="5.10" departSpeed="0.00" departDelay="0.00" arrival="279.30" arrivalLane="-294585476#1_0" arrivalPos="90.90" arrivalSpeed="27.58" duration="178.30" routeLength="1422.51" waitSteps="546" timeLoss="127.02" rerouteNo="0" devices="tripinfo_101" vType="DEFAULT_VEHTYPE" speedFactor="1.00" vaporized=""/>
    <tripinfo id="196" depart="196.00" departLane="-399241929#1_0" departPos="5.10" departSpeed="0.00" departDelay="0.00" arrival="281.30" arrivalLane="13286058#0_0" arrivalPos="47.05" arrivalSpeed="13.85" duration="85.30" routeLength="844.53" waitSteps="185" timeLoss="52.99" rerouteNo="0" devices="tripinfo_196" vType="DEFAULT_VEHTYPE" speedFactor="1.00" vaporized=""/>
    <tripinfo id="132" depart="132.00" departLane="-381265874#0_0" departPos="1.84" departSpeed="0.00" departDelay="0.00" arrival="285.10" arrivalLane="-47805886#8_0" arrivalPos="0.20" arrivalSpeed="9.59" duration="153.10" routeLength="435.01" waitSteps="938" timeLoss="137.44" rerouteNo="0" devices="tripinfo_132" vType="DEFAULT_VEHTYPE" speedFactor="1.00" vaporized=""/>
    <tripinfo id="14" depart="14.00" departLane="206372069#1_0" departPos="5.10" departSpeed="0.00" departDelay="0.00" arrival="287.20" arrivalLane="-399247038#0_2" arrivalPos="0.83" arrivalSpeed="5.42" duration="273.20" routeLength="1371.95" waitSteps="1381" timeLoss="219.80" rerouteNo="0" devices="tripinfo_14" vType="DEFAULT_VEHTYPE" speedFactor="1.00" vaporized=""/>
    <tripinfo id="39" depart="39.00" departLane="-399179069#1_0" departPos="5.10" departSpeed="0.00" departDelay="0.00" arrival="287.80" arrivalLane="399270702#1_1" arrivalPos="3.82" arrivalSpeed="6.61" duration="248.80" routeLength="1338.95" waitSteps="1007" timeLoss="200.32" rerouteNo="0" devices="tripinfo_39" vType="DEFAULT_VEHTYPE" speedFactor="1.00" vaporized=""/>
    <tripinfo id="113" depart="113.00" departLane="398735944_0" departPos="5.10" departSpeed="0.00" departDelay="0.00" arrival="291.40" arrivalLane="-521802279#5_1" arrivalPos="81.89" arrivalSpeed="19.15" duration="178.40" routeLength="1280.92" waitSteps="686" timeLoss="132.29" rerouteNo="0" devices="tripinfo_113" vType="DEFAULT_VEHTYPE" speedFactor="1.00" vaporized=""/>
    <tripinfo id="220" depart="220.00" departLane="399307898_0" departPos="5.10" departSpeed="0.00" departDelay="0.00" arrival="292.60" arrivalLane="-121934301#0_0" arrivalPos="62.79" arrivalSpeed="27.70" duration="72.60" routeLength="1381.75" waitSteps="0" timeLoss="21.73" rerouteNo="0" devices="tripinfo_220" vType="DEFAULT_VEHTYPE" speedFactor="1.00" vaporized=""/>